# vtk DataFile Version 3.0
vtk output
ASCII
DATASET UNSTRUCTURED_GRID
POINTS 121 double
0.000000e+00 0.000000e+00 0.000000e+00
8.000000e-02 0.000000e+00 0.000000e+00
6.915371e-02 1.200000e-01 0.000000e+00
1.456337e-01 1.200000e-01 0.000000e+00
1.600000e-01 0.000000e+00 0.000000e+00
2.221137e-01 1.200000e-01 0.000000e+00
2.400000e-01 0.000000e+00 0.000000e+00
2.985937e-01 1.200000e-01 0.000000e+00
3.200000e-01 0.000000e+00 0.000000e+00
3.750737e-01 1.200000e-01 0.000000e+00
4.000000e-01 0.000000e+00 0.000000e+00
4.515537e-01 1.200000e-01 0.000000e+00
4.800000e-01 0.000000e+00 0.000000e+00
5.280337e-01 1.200000e-01 0.000000e+00
5.600000e-01 0.000000e+00 0.000000e+00
6.045137e-01 1.200000e-01 0.000000e+00
6.400000e-01 0.000000e+00 0.000000e+00
6.809937e-01 1.200000e-01 0.000000e+00
7.200000e-01 0.000000e+00 0.000000e+00
7.574737e-01 1.200000e-01 0.000000e+00
8.000000e-01 0.000000e+00 0.000000e+00
8.339537e-01 1.200000e-01 0.000000e+00
1.383074e-01 2.400000e-01 0.000000e+00
2.112674e-01 2.400000e-01 0.000000e+00
2.842274e-01 2.400000e-01 0.000000e+00
3.571874e-01 2.400000e-01 0.000000e+00
4.301474e-01 2.400000e-01 0.000000e+00
5.031074e-01 2.400000e-01 0.000000e+00
5.760674e-01 2.400000e-01 0.000000e+00
6.490274e-01 2.400000e-01 0.000000e+00
7.219874e-01 2.400000e-01 0.000000e+00
7.949474e-01 2.400000e-01 0.000000e+00
8.679074e-01 2.400000e-01 0.000000e+00
2.074611e-01 3.600000e-01 0.000000e+00
2.769011e-01 3.600000e-01 0.000000e+00
3.463411e-01 3.600000e-01 0.000000e+00
4.157811e-01 3.600000e-01 0.000000e+00
4.852211e-01 3.600000e-01 0.000000e+00
5.546612e-01 3.600000e-01 0.000000e+00
6.241012e-01 3.600000e-01 0.000000e+00
6.935411e-01 3.600000e-01 0.000000e+00
7.629811e-01 3.600000e-01 0.000000e+00
8.324211e-01 3.600000e-01 0.000000e+00
9.018611e-01 3.600000e-01 0.000000e+00
2.766148e-01 4.800000e-01 0.000000e+00
3.425348e-01 4.800000e-01 0.000000e+00
4.084548e-01 4.800000e-01 0.000000e+00
4.743749e-01 4.800000e-01 0.000000e+00
5.402948e-01 4.800000e-01 0.000000e+00
6.062148e-01 4.800000e-01 0.000000e+00
6.721349e-01 4.800000e-01 0.000000e+00
7.380549e-01 4.800000e-01 0.000000e+00
8.039749e-01 4.800000e-01 0.000000e+00
8.698949e-01 4.800000e-01 0.000000e+00
9.358149e-01 4.800000e-01 0.000000e+00
3.457686e-01 6.000000e-01 0.000000e+00
4.081686e-01 6.000000e-01 0.000000e+00
4.705686e-01 6.000000e-01 0.000000e+00
5.329686e-01 6.000000e-01 0.000000e+00
5.953686e-01 6.000000e-01 0.000000e+00
6.577685e-01 6.000000e-01 0.000000e+00
7.201686e-01 6.000000e-01 0.000000e+00
7.825686e-01 6.000000e-01 0.000000e+00
8.449686e-01 6.000000e-01 0.000000e+00
9.073685e-01 6.000000e-01 0.000000e+00
9.697686e-01 6.000000e-01 0.000000e+00
4.149223e-01 7.200000e-01 0.000000e+00
4.738023e-01 7.200000e-01 0.000000e+00
5.326823e-01 7.200000e-01 0.000000e+00
5.915623e-01 7.200000e-01 0.000000e+00
6.504423e-01 7.200000e-01 0.000000e+00
7.093223e-01 7.200000e-01 0.000000e+00
7.682022e-01 7.200000e-01 0.000000e+00
8.270823e-01 7.200000e-01 0.000000e+00
8.859622e-01 7.200000e-01 0.000000e+00
9.448423e-01 7.200000e-01 0.000000e+00
1.003722e+00 7.200000e-01 0.000000e+00
4.840760e-01 8.400000e-01 0.000000e+00
5.394360e-01 8.400000e-01 0.000000e+00
5.947960e-01 8.400000e-01 0.000000e+00
6.501560e-01 8.400000e-01 0.000000e+00
7.055160e-01 8.400000e-01 0.000000e+00
7.608760e-01 8.400000e-01 0.000000e+00
8.162360e-01 8.400000e-01 0.000000e+00
8.715960e-01 8.400000e-01 0.000000e+00
9.269560e-01 8.400000e-01 0.000000e+00
9.823160e-01 8.400000e-01 0.000000e+00
1.037676e+00 8.400000e-01 0.000000e+00
5.532297e-01 9.600000e-01 0.000000e+00
6.050697e-01 9.600000e-01 0.000000e+00
6.569097e-01 9.600000e-01 0.000000e+00
7.087497e-01 9.600000e-01 0.000000e+00
7.605897e-01 9.600000e-01 0.000000e+00
8.124297e-01 9.600000e-01 0.000000e+00
8.642697e-01 9.600000e-01 0.000000e+00
9.161097e-01 9.600000e-01 0.000000e+00
9.679497e-01 9.600000e-01 0.000000e+00
1.019790e+00 9.600000e-01 0.000000e+00
1.071630e+00 9.600000e-01 0.000000e+00
6.223834e-01 1.080000e+00 0.000000e+00
6.707034e-01 1.080000e+00 0.000000e+00
7.190234e-01 1.080000e+00 0.000000e+00
7.673434e-01 1.080000e+00 0.000000e+00
8.156634e-01 1.080000e+00 0.000000e+00
8.639834e-01 1.080000e+00 0.000000e+00
9.123034e-01 1.080000e+00 0.000000e+00
9.606234e-01 1.080000e+00 0.000000e+00
1.008943e+00 1.080000e+00 0.000000e+00
1.057263e+00 1.080000e+00 0.000000e+00
1.105583e+00 1.080000e+00 0.000000e+00
6.915371e-01 1.200000e+00 0.000000e+00
7.363371e-01 1.200000e+00 0.000000e+00
7.811371e-01 1.200000e+00 0.000000e+00
8.259372e-01 1.200000e+00 0.000000e+00
8.707371e-01 1.200000e+00 0.000000e+00
9.155371e-01 1.200000e+00 0.000000e+00
9.603371e-01 1.200000e+00 0.000000e+00
1.005137e+00 1.200000e+00 0.000000e+00
1.049937e+00 1.200000e+00 0.000000e+00
1.094737e+00 1.200000e+00 0.000000e+00
1.139537e+00 1.200000e+00 0.000000e+00

CELLS 100 500
4 0 1 3 2 
4 1 4 5 3 
4 4 6 7 5 
4 6 8 9 7 
4 8 10 11 9 
4 10 12 13 11 
4 12 14 15 13 
4 14 16 17 15 
4 16 18 19 17 
4 18 20 21 19 
4 2 3 23 22 
4 3 5 24 23 
4 5 7 25 24 
4 7 9 26 25 
4 9 11 27 26 
4 11 13 28 27 
4 13 15 29 28 
4 15 17 30 29 
4 17 19 31 30 
4 19 21 32 31 
4 22 23 34 33 
4 23 24 35 34 
4 24 25 36 35 
4 25 26 37 36 
4 26 27 38 37 
4 27 28 39 38 
4 28 29 40 39 
4 29 30 41 40 
4 30 31 42 41 
4 31 32 43 42 
4 33 34 45 44 
4 34 35 46 45 
4 35 36 47 46 
4 36 37 48 47 
4 37 38 49 48 
4 38 39 50 49 
4 39 40 51 50 
4 40 41 52 51 
4 41 42 53 52 
4 42 43 54 53 
4 44 45 56 55 
4 45 46 57 56 
4 46 47 58 57 
4 47 48 59 58 
4 48 49 60 59 
4 49 50 61 60 
4 50 51 62 61 
4 51 52 63 62 
4 52 53 64 63 
4 53 54 65 64 
4 55 56 67 66 
4 56 57 68 67 
4 57 58 69 68 
4 58 59 70 69 
4 59 60 71 70 
4 60 61 72 71 
4 61 62 73 72 
4 62 63 74 73 
4 63 64 75 74 
4 64 65 76 75 
4 66 67 78 77 
4 67 68 79 78 
4 68 69 80 79 
4 69 70 81 80 
4 70 71 82 81 
4 71 72 83 82 
4 72 73 84 83 
4 73 74 85 84 
4 74 75 86 85 
4 75 76 87 86 
4 77 78 89 88 
4 78 79 90 89 
4 79 80 91 90 
4 80 81 92 91 
4 81 82 93 92 
4 82 83 94 93 
4 83 84 95 94 
4 84 85 96 95 
4 85 86 97 96 
4 86 87 98 97 
4 88 89 100 99 
4 89 90 101 100 
4 90 91 102 101 
4 91 92 103 102 
4 92 93 104 103 
4 93 94 105 104 
4 94 95 106 105 
4 95 96 107 106 
4 96 97 108 107 
4 97 98 109 108 
4 99 100 111 110 
4 100 101 112 111 
4 101 102 113 112 
4 102 103 114 113 
4 103 104 115 114 
4 104 105 116 115 
4 105 106 117 116 
4 106 107 118 117 
4 107 108 119 118 
4 108 109 120 119 

CELL_TYPES 100
9
9
9
9
9
9
9
9
9
9
9
9
9
9
9
9
9
9
9
9
9
9
9
9
9
9
9
9
9
9
9
9
9
9
9
9
9
9
9
9
9
9
9
9
9
9
9
9
9
9
9
9
9
9
9
9
9
9
9
9
9
9
9
9
9
9
9
9
9
9
9
9
9
9
9
9
9
9
9
9
9
9
9
9
9
9
9
9
9
9
9
9
9
9
9
9
9
9
9
9
POINT_DATA 121
SCALARS u double 1
LOOKUP_TABLE default
0.000e+00
0.000e+00
-4.179e-09
-3.960e-09
0.000e+00
-3.566e-09
0.000e+00
-3.034e-09
0.000e+00
-2.460e-09
0.000e+00
-1.917e-09
0.000e+00
-1.468e-09
0.000e+00
-1.191e-09
0.000e+00
-1.209e-09
0.000e+00
-1.733e-09
0.000e+00
-3.546e-09
-1.092e-08
-1.066e-08
-1.013e-08
-9.378e-09
-8.569e-09
-7.840e-09
-7.324e-09
-7.175e-09
-7.576e-09
-8.661e-09
-1.002e-08
-2.056e-08
-2.033e-08
-1.992e-08
-1.934e-08
-1.875e-08
-1.827e-08
-1.803e-08
-1.815e-08
-1.867e-08
-1.950e-08
-2.075e-08
-3.488e-08
-3.475e-08
-3.453e-08
-3.422e-08
-3.391e-08
-3.371e-08
-3.367e-08
-3.382e-08
-3.419e-08
-3.488e-08
-3.602e-08
-5.504e-08
-5.499e-08
-5.493e-08
-5.482e-08
-5.471e-08
-5.467e-08
-5.470e-08
-5.485e-08
-5.516e-08
-5.572e-08
-5.673e-08
-8.169e-08
-8.168e-08
-8.173e-08
-8.177e-08
-8.184e-08
-8.191e-08
-8.216e-08
-8.256e-08
-8.312e-08
-8.386e-08
-8.487e-08
-1.153e-07
-1.153e-07
-1.155e-07
-1.159e-07
-1.163e-07
-1.169e-07
-1.175e-07
-1.182e-07
-1.190e-07
-1.198e-07
-1.207e-07
-1.563e-07
-1.564e-07
-1.569e-07
-1.576e-07
-1.584e-07
-1.593e-07
-1.601e-07
-1.609e-07
-1.617e-07
-1.624e-07
-1.631e-07
-2.031e-07
-2.034e-07
-2.040e-07
-2.048e-07
-2.058e-07
-2.068e-07
-2.078e-07
-2.088e-07
-2.096e-07
-2.103e-07
-2.108e-07
-2.518e-07
-2.520e-07
-2.526e-07
-2.536e-07
-2.549e-07
-2.565e-07
-2.582e-07
-2.598e-07
-2.613e-07
-2.625e-07
-2.633e-07
SCALARS v double 1
LOOKUP_TABLE default
0.000e+00
0.000e+00
-4.071e-09
-4.783e-09
0.000e+00
-4.836e-09
0.000e+00
-4.293e-09
0.000e+00
-3.249e-09
0.000e+00
-1.750e-09
0.000e+00
1.857e-10
0.000e+00
2.575e-09
0.000e+00
5.508e-09
0.000e+00
9.714e-09
0.000e+00
1.679e-08
-1.026e-08
-1.042e-08
-9.666e-09
-7.896e-09
-5.221e-09
-1.706e-09
2.643e-09
7.913e-09
1.445e-08
2.261e-08
3.157e-08
-1.697e-08
-1.588e-08
-1.358e-08
-9.980e-09
-5.196e-09
7.250e-10
7.800e-09
1.613e-08
2.570e-08
3.623e-08
4.760e-08
-2.326e-08
-2.012e-08
-1.567e-08
-9.812e-09
-2.623e-09
5.851e-09
1.560e-08
2.653e-08
3.854e-08
5.154e-08
6.525e-08
-2.785e-08
-2.222e-08
-1.531e-08
-6.995e-09
2.659e-09
1.359e-08
2.568e-08
3.892e-08
5.332e-08
6.880e-08
8.520e-08
-2.977e-08
-2.151e-08
-1.205e-08
-1.272e-09
1.074e-08
2.386e-08
3.822e-08
5.371e-08
7.030e-08
8.806e-08
1.069e-07
-2.831e-08
-1.740e-08
-5.362e-09
7.887e-09
2.222e-08
3.757e-08
5.384e-08
7.104e-08
8.926e-08
1.086e-07
1.290e-07
-2.231e-08
-8.316e-09
6.444e-09
2.191e-08
3.796e-08
5.460e-08
7.193e-08
9.008e-08
1.092e-07
1.293e-07
1.504e-07
-8.809e-09
7.537e-09
2.391e-08
4.029e-08
5.684e-08
7.382e-08
9.142e-08
1.098e-07
1.291e-07
1.492e-07
1.702e-07
1.256e-08
2.920e-08
4.534e-08
6.135e-08
7.762e-08
9.434e-08
1.117e-07
1.297e-07
1.484e-07
1.681e-07
1.887e-07
SCALARS w double 1
LOOKUP_TABLE default
0.000e+00
0.000e+00
6.467e-07
1.776e-06
0.000e+00
3.133e-06
0.000e+00
4.604e-06
0.000e+00
6.159e-06
0.000e+00
7.810e-06
0.000e+00
9.588e-06
0.000e+00
1.154e-05
0.000e+00
1.374e-05
0.000e+00
1.617e-05
0.000e+00
1.761e-05
7.235e-06
1.191e-05
1.699e-05
2.236e-05
2.798e-05
3.391e-05
4.020e-05
4.692e-05
5.404e-05
6.109e-05
6.751e-05
2.855e-05
3.845e-05
4.877e-05
5.946e-05
7.055e-05
8.207e-05
9.405e-05
1.064e-04
1.190e-04
1.316e-04
1.438e-04
7.119e-05
8.686e-05
1.030e-04
1.195e-04
1.364e-04
1.537e-04
1.714e-04
1.895e-04
2.077e-04
2.259e-04
2.441e-04
1.389e-04
1.602e-04
1.819e-04
2.040e-04
2.265e-04
2.493e-04
2.724e-04
2.959e-04
3.196e-04
3.434e-04
3.673e-04
2.334e-04
2.599e-04
2.866e-04
3.137e-04
3.411e-04
3.689e-04
3.971e-04
4.255e-04
4.543e-04
4.832e-04
5.123e-04
3.554e-04
3.862e-04
4.172e-04
4.486e-04
4.803e-04
5.123e-04
5.446e-04
5.771e-04
6.098e-04
6.427e-04
6.759e-04
5.047e-04
5.388e-04
5.731e-04
6.075e-04
6.422e-04
6.769e-04
7.119e-04
7.469e-04
7.821e-04
8.174e-04
8.531e-04
6.789e-04
7.145e-04
7.502e-04
7.859e-04
8.217e-04
8.576e-04
8.935e-04
9.294e-04
9.654e-04
1.001e-03
1.038e-03
8.706e-04
9.058e-04
9.412e-04
9.768e-04
1.013e-03
1.048e-03
1.084e-03
1.119e-03
1.155e-03
1.190e-03
1.225e-03
SCALARS rotx double 1
LOOKUP_TABLE default
0.000e+00
0.000e+00
4.743e-06
2.144e-05
0.000e+00
4.335e-05
0.000e+00
6.760e-05
0.000e+00
9.339e-05
0.000e+00
1.207e-04
0.000e+00
1.499e-04
0.000e+00
1.819e-04
0.000e+00
2.176e-04
0.000e+00
2.543e-04
0.000e+00
2.955e-04
6.445e-05
1.019e-04
1.413e-04
1.821e-04
2.246e-04
2.688e-04
3.146e-04
3.617e-04
4.079e-04
4.552e-04
5.090e-04
1.766e-04
2.240e-04
2.732e-04
3.231e-04
3.739e-04
4.252e-04
4.765e-04
5.273e-04
5.786e-04
6.339e-04
6.871e-04
3.197e-04
3.713e-04
4.238e-04
4.765e-04
5.292e-04
5.818e-04
6.342e-04
6.874e-04
7.418e-04
7.977e-04
8.526e-04
4.793e-04
5.307e-04
5.827e-04
6.345e-04
6.861e-04
7.379e-04
7.905e-04
8.441e-04
8.984e-04
9.556e-04
1.009e-03
6.454e-04
6.945e-04
7.439e-04
7.933e-04
8.433e-04
8.939e-04
9.447e-04
9.960e-04
1.048e-03
1.101e-03
1.150e-03
8.132e-04
8.589e-04
9.050e-04
9.511e-04
9.969e-04
1.042e-03
1.087e-03
1.131e-03
1.174e-03
1.219e-03
1.258e-03
9.782e-04
1.018e-03
1.057e-03
1.093e-03
1.128e-03
1.163e-03
1.196e-03
1.229e-03
1.261e-03
1.294e-03
1.320e-03
1.122e-03
1.146e-03
1.169e-03
1.192e-03
1.215e-03
1.239e-03
1.262e-03
1.285e-03
1.307e-03
1.326e-03
1.340e-03
1.194e-03
1.206e-03
1.221e-03
1.238e-03
1.258e-03
1.277e-03
1.295e-03
1.312e-03
1.326e-03
1.337e-03
1.343e-03
SCALARS roty double 1
LOOKUP_TABLE default
0.000e+00
0.000e+00
-1.313e-05
-1.712e-05
0.000e+00
-1.916e-05
0.000e+00
-2.032e-05
0.000e+00
-2.145e-05
0.000e+00
-2.287e-05
0.000e+00
-2.486e-05
0.000e+00
-2.741e-05
0.000e+00
-3.155e-05
0.000e+00
-3.290e-05
0.000e+00
-3.379e-06
-6.139e-05
-6.757e-05
-7.199e-05
-7.557e-05
-7.927e-05
-8.370e-05
-8.910e-05
-9.551e-05
-9.949e-05
-9.336e-05
-8.218e-05
-1.398e-04
-1.459e-04
-1.515e-04
-1.569e-04
-1.628e-04
-1.693e-04
-1.759e-04
-1.807e-04
-1.815e-04
-1.799e-04
-1.728e-04
-2.349e-04
-2.410e-04
-2.473e-04
-2.536e-04
-2.600e-04
-2.663e-04
-2.715e-04
-2.752e-04
-2.773e-04
-2.770e-04
-2.734e-04
-3.389e-04
-3.448e-04
-3.509e-04
-3.569e-04
-3.629e-04
-3.686e-04
-3.739e-04
-3.783e-04
-3.811e-04
-3.831e-04
-3.822e-04
-4.460e-04
-4.514e-04
-4.571e-04
-4.630e-04
-4.690e-04
-4.752e-04
-4.809e-04
-4.856e-04
-4.895e-04
-4.930e-04
-4.949e-04
-5.531e-04
-5.579e-04
-5.636e-04
-5.697e-04
-5.755e-04
-5.805e-04
-5.849e-04
-5.888e-04
-5.925e-04
-5.970e-04
-6.015e-04
-6.557e-04
-6.590e-04
-6.629e-04
-6.664e-04
-6.693e-04
-6.719e-04
-6.744e-04
-6.768e-04
-6.798e-04
-6.845e-04
-6.904e-04
-7.365e-04
-7.375e-04
-7.385e-04
-7.401e-04
-7.418e-04
-7.432e-04
-7.439e-04
-7.442e-04
-7.450e-04
-7.476e-04
-7.518e-04
-7.838e-04
-7.867e-04
-7.913e-04
-7.951e-04
-7.968e-04
-7.962e-04
-7.935e-04
-7.894e-04
-7.849e-04
-7.820e-04
-7.824e-04
SCALARS rotz double 1
LOOKUP_TABLE default
0.000e+00
0.000e+00
2.118e-08
2.349e-08
0.000e+00
2.693e-08
0.000e+00
2.816e-08
0.000e+00
2.855e-08
0.000e+00
2.873e-08
0.000e+00
2.934e-08
0.000e+00
3.101e-08
0.000e+00
3.536e-08
0.000e+00
5.247e-08
0.000e+00
6.952e-08
3.073e-08
3.540e-08
4.391e-08
5.096e-08
5.694e-08
6.250e-08
6.823e-08
7.539e-08
8.605e-08
9.465e-08
9.392e-08
5.578e-08
6.186e-08
7.334e-08
8.345e-08
9.269e-08
1.014e-07
1.103e-07
1.192e-07
1.260e-07
1.309e-07
1.346e-07
9.360e-08
1.002e-07
1.128e-07
1.242e-07
1.349e-07
1.451e-07
1.543e-07
1.621e-07
1.688e-07
1.742e-07
1.760e-07
1.405e-07
1.470e-07
1.595e-07
1.711e-07
1.821e-07
1.918e-07
2.012e-07
2.105e-07
2.195e-07
2.274e-07
2.311e-07
1.933e-07
1.994e-07
2.116e-07
2.233e-07
2.342e-07
2.451e-07
2.563e-07
2.666e-07
2.769e-07
2.877e-07
2.930e-07
2.519e-07
2.579e-07
2.700e-07
2.814e-07
2.923e-07
3.026e-07
3.121e-07
3.219e-07
3.320e-07
3.427e-07
3.478e-07
3.179e-07
3.222e-07
3.297e-07
3.363e-07
3.426e-07
3.494e-07
3.575e-07
3.667e-07
3.764e-07
3.864e-07
3.908e-07
3.692e-07
3.683e-07
3.667e-07
3.673e-07
3.713e-07
3.784e-07
3.878e-07
3.988e-07
4.109e-07
4.220e-07
4.269e-07
3.900e-07
3.840e-07
3.767e-07
3.769e-07
3.819e-07
3.901e-07
4.009e-07
4.134e-07
4.271e-07
4.436e-07
4.536e-07
SCALARS failure double 1
LOOKUP_TABLE default
7.138e-03
7.428e-03
7.882e-03
8.104e-03
7.853e-03
8.396e-03
8.336e-03
8.741e-03
8.855e-03
9.135e-03
9.408e-03
9.565e-03
1.000e-02
1.002e-02
1.065e-02
1.051e-02
1.138e-02
1.098e-02
1.213e-02
1.150e-02
1.294e-02
1.210e-02
8.927e-03
9.137e-03
9.373e-03
9.612e-03
9.858e-03
1.011e-02
1.034e-02
1.055e-02
1.072e-02
1.095e-02
1.120e-02
9.742e-03
9.867e-03
1.000e-02
1.014e-02
1.026e-02
1.037e-02
1.046e-02
1.054e-02
1.067e-02
1.082e-02
1.091e-02
1.021e-02
1.028e-02
1.034e-02
1.040e-02
1.044e-02
1.048e-02
1.054e-02
1.061e-02
1.070e-02
1.079e-02
1.087e-02
1.044e-02
1.046e-02
1.048e-02
1.050e-02
1.052e-02
1.055e-02
1.060e-02
1.065e-02
1.071e-02
1.076e-02
1.078e-02
1.051e-02
1.051e-02
1.051e-02
1.052e-02
1.053e-02
1.053e-02
1.053e-02
1.052e-02
1.052e-02
1.048e-02
1.044e-02
1.048e-02
1.045e-02
1.041e-02
1.036e-02
1.029e-02
1.021e-02
1.012e-02
1.004e-02
9.965e-03
9.862e-03
9.757e-03
1.018e-02
1.005e-02
9.901e-03
9.758e-03
9.626e-03
9.506e-03
9.395e-03
9.284e-03
9.186e-03
9.035e-03
8.901e-03
9.232e-03
9.077e-03
8.957e-03
8.873e-03
8.811e-03
8.746e-03
8.661e-03
8.544e-03
8.405e-03
8.200e-03
8.045e-03
8.445e-03
8.333e-03
8.351e-03
8.412e-03
8.449e-03
8.437e-03
8.367e-03
8.232e-03
8.025e-03
7.745e-03
7.576e-03
SCALARS dv1 double 1
LOOKUP_TABLE default
2.500e-02
2.500e-02
2.500e-02
2.500e-02
2.500e-02
2.500e-02
2.500e-02
2.500e-02
2.500e-02
2.500e-02
2.500e-02
2.500e-02
2.500e-02
2.500e-02
2.500e-02
2.500e-02
2.500e-02
2.500e-02
2.500e-02
2.500e-02
2.500e-02
2.500e-02
2.500e-02
2.500e-02
2.500e-02
2.500e-02
2.500e-02
2.500e-02
2.500e-02
2.500e-02
2.500e-02
2.500e-02
2.500e-02
2.500e-02
2.500e-02
2.500e-02
2.500e-02
2.500e-02
2.500e-02
2.500e-02
2.500e-02
2.500e-02
2.500e-02
2.500e-02
2.500e-02
2.500e-02
2.500e-02
2.500e-02
2.500e-02
2.500e-02
2.500e-02
2.500e-02
2.500e-02
2.500e-02
2.500e-02
2.500e-02
2.500e-02
2.500e-02
2.500e-02
2.500e-02
2.500e-02
2.500e-02
2.500e-02
2.500e-02
2.500e-02
2.500e-02
2.500e-02
2.500e-02
2.500e-02
2.500e-02
2.500e-02
2.500e-02
2.500e-02
2.500e-02
2.500e-02
2.500e-02
2.500e-02
2.500e-02
2.500e-02
2.500e-02
2.500e-02
2.500e-02
2.500e-02
2.500e-02
2.500e-02
2.500e-02
2.500e-02
2.500e-02
2.500e-02
2.500e-02
2.500e-02
2.500e-02
2.500e-02
2.500e-02
2.500e-02
2.500e-02
2.500e-02
2.500e-02
2.500e-02
2.500e-02
2.500e-02
2.500e-02
2.500e-02
2.500e-02
2.500e-02
2.500e-02
2.500e-02
2.500e-02
2.500e-02
2.500e-02
2.500e-02
2.500e-02
2.500e-02
2.500e-02
2.500e-02
2.500e-02
2.500e-02
2.500e-02
2.500e-02
2.500e-02
2.500e-02
SCALARS dv2 double 1
LOOKUP_TABLE default
0.000e+00
0.000e+00
0.000e+00
0.000e+00
0.000e+00
0.000e+00
0.000e+00
0.000e+00
0.000e+00
0.000e+00
0.000e+00
0.000e+00
0.000e+00
0.000e+00
0.000e+00
0.000e+00
0.000e+00
0.000e+00
0.000e+00
0.000e+00
0.000e+00
0.000e+00
0.000e+00
0.000e+00
0.000e+00
0.000e+00
0.000e+00
0.000e+00
0.000e+00
0.000e+00
0.000e+00
0.000e+00
0.000e+00
0.000e+00
0.000e+00
0.000e+00
0.000e+00
0.000e+00
0.000e+00
0.000e+00
0.000e+00
0.000e+00
0.000e+00
0.000e+00
0.000e+00
0.000e+00
0.000e+00
0.000e+00
0.000e+00
0.000e+00
0.000e+00
0.000e+00
0.000e+00
0.000e+00
0.000e+00
0.000e+00
0.000e+00
0.000e+00
0.000e+00
0.000e+00
0.000e+00
0.000e+00
0.000e+00
0.000e+00
0.000e+00
0.000e+00
0.000e+00
0.000e+00
0.000e+00
0.000e+00
0.000e+00
0.000e+00
0.000e+00
0.000e+00
0.000e+00
0.000e+00
0.000e+00
0.000e+00
0.000e+00
0.000e+00
0.000e+00
0.000e+00
0.000e+00
0.000e+00
0.000e+00
0.000e+00
0.000e+00
0.000e+00
0.000e+00
0.000e+00
0.000e+00
0.000e+00
0.000e+00
0.000e+00
0.000e+00
0.000e+00
0.000e+00
0.000e+00
0.000e+00
0.000e+00
0.000e+00
0.000e+00
0.000e+00
0.000e+00
0.000e+00
0.000e+00
0.000e+00
0.000e+00
0.000e+00
0.000e+00
0.000e+00
0.000e+00
0.000e+00
0.000e+00
0.000e+00
0.000e+00
0.000e+00
0.000e+00
0.000e+00
0.000e+00
0.000e+00
SCALARS dv3 double 1
LOOKUP_TABLE default
0.000e+00
0.000e+00
0.000e+00
0.000e+00
0.000e+00
0.000e+00
0.000e+00
0.000e+00
0.000e+00
0.000e+00
0.000e+00
0.000e+00
0.000e+00
0.000e+00
0.000e+00
0.000e+00
0.000e+00
0.000e+00
0.000e+00
0.000e+00
0.000e+00
0.000e+00
0.000e+00
0.000e+00
0.000e+00
0.000e+00
0.000e+00
0.000e+00
0.000e+00
0.000e+00
0.000e+00
0.000e+00
0.000e+00
0.000e+00
0.000e+00
0.000e+00
0.000e+00
0.000e+00
0.000e+00
0.000e+00
0.000e+00
0.000e+00
0.000e+00
0.000e+00
0.000e+00
0.000e+00
0.000e+00
0.000e+00
0.000e+00
0.000e+00
0.000e+00
0.000e+00
0.000e+00
0.000e+00
0.000e+00
0.000e+00
0.000e+00
0.000e+00
0.000e+00
0.000e+00
0.000e+00
0.000e+00
0.000e+00
0.000e+00
0.000e+00
0.000e+00
0.000e+00
0.000e+00
0.000e+00
0.000e+00
0.000e+00
0.000e+00
0.000e+00
0.000e+00
0.000e+00
0.000e+00
0.000e+00
0.000e+00
0.000e+00
0.000e+00
0.000e+00
0.000e+00
0.000e+00
0.000e+00
0.000e+00
0.000e+00
0.000e+00
0.000e+00
0.000e+00
0.000e+00
0.000e+00
0.000e+00
0.000e+00
0.000e+00
0.000e+00
0.000e+00
0.000e+00
0.000e+00
0.000e+00
0.000e+00
0.000e+00
0.000e+00
0.000e+00
0.000e+00
0.000e+00
0.000e+00
0.000e+00
0.000e+00
0.000e+00
0.000e+00
0.000e+00
0.000e+00
0.000e+00
0.000e+00
0.000e+00
0.000e+00
0.000e+00
0.000e+00
0.000e+00
0.000e+00
0.000e+00
